# vtk DataFile Version 2.0
HigaSol.vtk
ASCII

DATASET UNSTRUCTURED_GRID
POINTS 16381 double
  0.000000  0.000000  0.000000
  2.000000  0.000000  0.000000
  2.000000  3.000000  0.000000
  0.000000  3.000000  0.000000
  0.000000  0.000000  1.000000
  2.000000  0.000000  1.000000
  2.000000  3.000000  1.000000
  0.000000  3.000000  1.000000
  0.400000  0.000000  0.000000
  0.800000  0.000000  0.000000
  1.200000  0.000000  0.000000
  1.600000  0.000000  0.000000
  2.000000  0.375000  0.000000
  2.000000  0.750000  0.000000
  2.000000  1.125000  0.000000
  2.000000  1.500000  0.000000
  2.000000  1.875000  0.000000
  2.000000  2.250000  0.000000
  2.000000  2.625000  0.000000
  1.600000  3.000000  0.000000
  1.200000  3.000000  0.000000
  0.800000  3.000000  0.000000
  0.400000  3.000000  0.000000
  0.000000  2.625000  0.000000
  0.000000  2.250000  0.000000
  0.000000  1.875000  0.000000
  0.000000  1.500000  0.000000
  0.000000  1.125000  0.000000
  0.000000  0.750000  0.000000
  0.000000  0.375000  0.000000
  0.000000  0.000000  0.333333
  0.000000  0.000000  0.666667
  2.000000  0.000000  0.333333
  2.000000  0.000000  0.666667
  0.400000  0.000000  1.000000
  0.800000  0.000000  1.000000
  1.200000  0.000000  1.000000
  1.600000  0.000000  1.000000
  2.000000  3.000000  0.333333
  2.000000  3.000000  0.666667
  2.000000  0.375000  1.000000
  2.000000  0.750000  1.000000
  2.000000  1.125000  1.000000
  2.000000  1.500000  1.000000
  2.000000  1.875000  1.000000
  2.000000  2.250000  1.000000
  2.000000  2.625000  1.000000
  0.000000  3.000000  0.333333
  0.000000  3.000000  0.666667
  1.600000  3.000000  1.000000
  1.200000  3.000000  1.000000
  0.800000  3.000000  1.000000
  0.400000  3.000000  1.000000
  0.000000  2.625000  1.000000
  0.000000  2.250000  1.000000
  0.000000  1.875000  1.000000
  0.000000  1.500000  1.000000
  0.000000  1.125000  1.000000
  0.000000  0.750000  1.000000
  0.000000  0.375000  1.000000
  0.999918  1.305070  0.000000
  1.166520  2.146730  0.000000
  0.642392  0.671437  0.000000
  1.380780  0.736149  0.000000
  0.646144  1.832360  0.000000
  0.582951  2.420760  0.000000
  1.442840  1.662610  0.000000
  0.482422  1.312500  0.000000
  1.525960  2.472950  0.000000
  1.538840  1.153400  0.000000
  0.964957  2.569260  0.000000
  1.597660  2.140720  0.000000
  1.029540  0.420070  0.000000
  1.054390  1.739440  0.000000
  1.585780  0.416006  0.000000
  0.325752  0.981225  0.000000
  0.388287  0.386809  0.000000
  0.363478  2.094230  0.000000
  0.996292  0.878790  0.000000
  0.796406  2.133800  0.000000
  0.348290  1.633880  0.000000
  1.689880  0.875185  0.000000
  0.693228  1.090170  0.000000
  0.340456  2.662680  0.000000
  0.722259  1.497800  0.000000
  0.709028  0.318803  0.000000
  1.683900  1.455220  0.000000
  1.304870  1.397290  0.000000
  0.617673  2.730540  0.000000
  1.244140  1.094140  0.000000
  1.678390  1.760920  0.000000
  1.699980  2.707420  0.000000
  1.372000  2.694860  0.000000
  0.261655  2.390420  0.000000
  1.316930  0.278440  0.000000
  1.356900  1.921040  0.000000
  0.269869  0.650248  0.000000
  1.778910  2.438130  0.000000
  0.204774  1.312500  0.000000
  1.271830  2.414220  0.000000
  1.774940  0.214228  0.000000
  0.197072  0.190452  0.000000
  1.763260  0.619751  0.000000
  1.522220  0.000000  0.500000
  0.477778  0.000000  0.500000
  1.000000  0.000000  0.374130
  1.254820  0.000000  0.681500
  0.707770  0.000000  0.656127
  1.325390  0.000000  0.307649
  0.646835  0.000000  0.303453
  1.710390  0.000000  0.273497
  1.698620  0.000000  0.724694
  0.284984  0.000000  0.272798
  0.295140  0.000000  0.720466
  0.198704  0.000000  0.499313
  1.800190  0.000000  0.499815
  2.000000  2.533650  0.483290
  2.000000  0.483796  0.500000
  2.000000  1.691770  0.510294
  2.000000  1.021560  0.506979
  2.000000  2.119710  0.367036
  2.000000  1.333350  0.309038
  2.000000  1.336330  0.696902
  2.000000  2.024120  0.736142
  2.000000  0.665120  0.314908
  2.000000  0.679162  0.685947
  2.000000  2.711230  0.280599
  2.000000  2.734600  0.737365
  2.000000  0.288773  0.280599
  2.000000  0.288773  0.719401
  2.000000  2.428620  0.225768
  2.000000  2.381180  0.720639
  2.000000  1.685440  0.788668
  2.000000  1.691790  0.220682
  2.000000  0.202945  0.500000
  2.000000  2.811450  0.500091
  2.000000  0.990502  0.770898
  2.000000  0.986909  0.229599
  0.477778  3.000000  0.500000
  1.522220  3.000000  0.500000
  1.000000  3.000000  0.374130
  1.292230  3.000000  0.656127
  0.773975  3.000000  0.695939
  0.677056  3.000000  0.308877
  1.353170  3.000000  0.303453
  0.290021  3.000000  0.273702
  0.288889  3.000000  0.726667
  1.715020  3.000000  0.272798
  1.704860  3.000000  0.720466
  1.801300  3.000000  0.499313
  0.203896  3.000000  0.500053
  0.000000  2.516200  0.500000
  0.000000  0.466350  0.483290
  0.000000  1.308230  0.510294
  0.000000  1.978440  0.506979
  0.000000  0.880293  0.367036
  0.000000  1.666650  0.309038
  0.000000  1.663670  0.696902
  0.000000  0.975882  0.736142
  0.000000  2.334880  0.314908
  0.000000  2.320840  0.685947
  0.000000  0.288773  0.280599
  0.000000  2.711230  0.280599
  0.000000  0.265395  0.737365
  0.000000  2.711230  0.719401
  0.000000  0.571383  0.225768
  0.000000  0.618820  0.720639
  0.000000  1.314560  0.788668
  0.000000  1.308210  0.220682
  0.000000  2.797050  0.500000
  0.000000  0.188554  0.500091
  0.000000  2.013090  0.229599
  0.000000  2.009500  0.770898
  0.999918  1.305070  1.000000
  1.166520  2.146730  1.000000
  0.642392  0.671437  1.000000
  1.380780  0.736149  1.000000
  0.646144  1.832360  1.000000
  0.582951  2.420760  1.000000
  1.442840  1.662610  1.000000
  0.482422  1.312500  1.000000
  1.525960  2.472950  1.000000
  1.538840  1.153400  1.000000
  0.964957  2.569260  1.000000
  1.597660  2.140720  1.000000
  1.029540  0.420070  1.000000
  1.054390  1.739440  1.000000
  1.585780  0.416006  1.000000
  0.325752  0.981225  1.000000
  0.388287  0.386809  1.000000
  0.363478  2.094230  1.000000
  0.996292  0.878790  1.000000
  0.796406  2.133800  1.000000
  0.348290  1.633880  1.000000
  1.689880  0.875185  1.000000
  0.693228  1.090170  1.000000
  0.340456  2.662680  1.000000
  0.722259  1.497800  1.000000
  0.709028  0.318803  1.000000
  1.683900  1.455220  1.000000
  1.304870  1.397290  1.000000
  0.617673  2.730540  1.000000
  1.244140  1.094140  1.000000
  1.678390  1.760920  1.000000
  1.699980  2.707420  1.000000
  1.372000  2.694860  1.000000
  0.261655  2.390420  1.000000
  1.316930  0.278440  1.000000
  1.356900  1.921040  1.000000
  0.269869  0.650248  1.000000
  1.778910  2.438130  1.000000
  0.204774  1.312500  1.000000
  1.271830  2.414220  1.000000
  1.774940  0.214228  1.000000
  0.197072  0.190452  1.000000
  1.763260  0.619751  1.000000
  1.558910  0.959418  0.425265
  0.521623  0.523513  0.510478
  0.529206  1.961650  0.500000
  1.013840  0.745700  0.500000
  0.687091  1.295460  0.500000
  1.257190  1.744380  0.500000
  0.364929  1.570910  0.502246
  0.950067  2.242220  0.529523
  1.682340  2.675990  0.579044
  0.509556  2.490800  0.500000
  1.202010  1.228000  0.500000
  1.479670  0.519834  0.500000
  0.410192  0.951892  0.563281
  1.602490  1.446340  0.502114
  0.840955  1.683730  0.624230
  1.386250  2.498330  0.500000
  1.574300  2.078120  0.542525
  1.077250  2.899670  0.399304
  0.992991  2.913850  0.499304
  0.990013  2.848440  0.405209
  1.154500  2.799330  0.424478
  1.070240  2.813520  0.524478
  1.067260  2.748110  0.430383
  0.985983  2.827700  0.624478
  0.983005  2.762300  0.530383
  0.980027  2.696890  0.436288
  1.231750  2.699000  0.449652
  1.147490  2.713180  0.549652
  1.144510  2.647770  0.455557
  1.063230  2.727370  0.649652
  1.060250  2.661960  0.555557
  1.057280  2.596550  0.461461
  0.978974  2.741560  0.749652
  0.975996  2.676150  0.655557
  0.973018  2.610740  0.561462
  0.970040  2.545330  0.467366
  1.309000  2.598660  0.474826
  1.224740  2.612850  0.574826
  1.221760  2.547440  0.480731
  1.140480  2.627040  0.674826
  1.137500  2.561630  0.580731
  1.134530  2.496220  0.486635
  1.056220  2.641220  0.774826
  1.053250  2.575810  0.680731
  1.050270  2.510410  0.586635
  1.047290  2.445000  0.492540
  0.971965  2.655410  0.874826
  0.968988  2.590000  0.780731
  0.966010  2.524590  0.686635
  0.963032  2.459180  0.592540
  0.960054  2.393770  0.498445
  1.301990  2.512510  0.600000
  1.299010  2.447110  0.505905
  1.217730  2.526700  0.700000
  1.214750  2.461290  0.605905
  1.211770  2.395880  0.511809
  1.133470  2.540890  0.800000
  1.130490  2.475480  0.705905
  1.127520  2.410070  0.611809
  1.124540  2.344660  0.517714
  1.049210  2.555070  0.900000
  1.046240  2.489670  0.805905
  1.043260  2.424260  0.711809
  1.040280  2.358850  0.617714
  1.037300  2.293440  0.523619
  0.961979  2.503850  0.905905
  0.959001  2.438440  0.811809
  0.956023  2.373040  0.717714
  0.953045  2.307630  0.623619
  1.877250  2.442560  0.280614
  1.955780  2.430520  0.180614
  1.914860  2.358520  0.289119
  1.754500  2.456500  0.335461
  1.833030  2.444460  0.235461
  1.792110  2.372460  0.343965
  1.911560  2.432420  0.135460
  1.870640  2.360420  0.243965
  1.829720  2.288420  0.352470
  1.631750  2.470440  0.390307
  1.710280  2.458400  0.290307
  1.669360  2.386400  0.398812
  1.788810  2.446360  0.190307
  1.747890  2.374360  0.298812
  1.706970  2.302360  0.407317
  1.867350  2.434320  0.090307
  1.826420  2.362320  0.198812
  1.785500  2.290320  0.307317
  1.744580  2.218320  0.415822
  1.509000  2.484390  0.445154
  1.587530  2.472350  0.345154
  1.546610  2.400340  0.453658
  1.666060  2.460300  0.245154
  1.625140  2.388300  0.353658
  1.584220  2.316300  0.462163
  1.744590  2.448260  0.145154
  1.703670  2.376260  0.253658
  1.662750  2.304260  0.362163
  1.621830  2.232260  0.470668
  1.823130  2.436220  0.045153
  1.782200  2.364220  0.153658
  1.741280  2.292220  0.262163
  1.700360  2.220220  0.370668
  1.659440  2.148220  0.479173
[...]
POINT_DATA 16381
SCALARS pressure double
LOOKUP_TABLE default
  0.000000
  0.000000
  0.000000
  0.000000
  0.000000
  0.000000
  0.000000
  0.000000
  0.000000
  0.000000
  -0.000000
  0.000000
  0.000000
  0.000000
  0.000000
  0.000000
  0.000000
  0.000000
  0.000000
  0.000000
  0.000000
  0.000000
  0.000000
  0.000000
  0.000000
  0.000000
  0.000000
  0.000000
  -0.000000
  0.000000
  0.000000
  0.000000
  0.000000
  0.000000
  0.000000
  0.000000
  0.000000
  0.000000
  0.000000
  0.000000
  0.000000
  0.000000
  0.000000
  0.000000
  0.000000
  0.000000
  0.000000
  0.000000
  -0.000000
  0.000000
  0.000000
  0.000000
  0.000000
  0.000000
  -0.000000
  -0.000000
  0.000000
  0.000000
  0.000000
  0.000000
  0.122862
  0.099064
  0.081051
  0.086024
  0.110514
  0.072419
  0.113665
  0.111469
  0.066716
  0.106291
  0.062056
  0.089697
  0.060784
  0.121334
  0.054092
  0.088685
  0.050124
  0.089292
  0.103547
  0.098883
  0.102645
  0.081790
  0.108390
  0.042674
  0.118404
  0.044476
  0.098849
  0.117076
  0.037568
  0.110203
  0.096686
  0.035532
  0.042190
  0.059754
  0.039042
  0.106914
  0.063570
  0.050441
  0.073364
  0.074641
  0.022407
  0.018157
  0.056624
  0.000000
  0.000000
  0.000000
  -0.000000
  0.000000
  -0.000000
  0.000000
  0.000000
  0.000000
  0.000000
  0.000000
  0.000000
  0.000000
  0.000000
  0.000000
  0.000000
  0.000000
  0.000000
  0.000000
  0.000000
  0.000000
  0.000000
  0.000000
  0.000000
  0.000000
  0.000000
  0.000000
  0.000000
  0.000000
  0.000000
  0.000000
  0.000000
  0.000000
  0.000000
  0.000000
  0.000000
  0.000000
  0.000000
  0.000000
  0.000000
  0.000000
  0.000000
  0.000000
  0.000000
  0.000000
  0.000000
  0.000000
  0.000000
  -0.000000
  0.000000
  0.000000
  -0.000000
  -0.000000
  0.000000
  0.000000
  0.000000
  0.000000
  0.000000
  0.000000
  -0.000000
  0.000000
  0.000000
  0.000000
  -0.000000
  -0.000000
  0.000000
  0.000000
  0.000000
  0.000000
  0.000000
  0.122862
  0.099064
  0.081051
  0.086024
  0.110514
  0.072419
  0.113665
  0.111469
  0.066716
  0.106291
  0.062056
  0.089697
  0.060784
  0.121334
  0.054092
  0.088685
  0.050124
  0.089292
  0.103547
  0.098883
  0.102645
  0.081790
  0.108390
  0.042674
  0.118404
  0.044476
  0.098849
  0.117076
  0.037568
  0.110203
  0.096686
  0.035532
  0.042190
  0.059754
  0.039042
  0.106914
  0.063570
  0.050441
  0.073364
  0.074641
  0.022407
  0.018157
  0.056624
  0.097128
  0.066779
  0.103444
  0.093772
  0.115113
  0.115595
  0.105223
  0.094480
  0.040014
  0.065272
  0.116520
  0.066402
  0.095132
  0.108457
  0.120204
  0.064886
  0.094448
  0.015563
  0.013490
  0.023549
  0.030033
  0.028619
  0.038155
  0.026681
  0.036336
  0.045573
  0.042906
  0.042194
  0.050906
  0.041118
  0.050089
  0.058542
  0.039308
  0.048388
  0.056946
  0.064946
  0.054390
  0.053912
  0.061669
  0.053618
  0.061671
  0.069185
  0.052849
  0.061133
  0.068844
  0.075985
  0.051149
  0.059532
  0.067346
  0.074575
  0.081220
  0.064156
  0.070953
  0.064082
  0.071157
  0.077708
  0.064170
  0.071511
  0.078292
  0.084531
  0.063668
  0.071199
  0.078153
  0.084546
  0.090399
  0.069679
  0.076720
  0.083182
  0.089093
  0.030798
  0.011719
  0.024043
  0.052928
  0.040189
  0.052011
  0.022969
  0.035433
  0.048059
  0.063609
  0.058290
  0.067917
  0.048272
  0.059403
  0.069682
  0.033374
  0.045613
  0.057571
  0.068752
  0.065770
  0.065391
  0.073086
  0.062236
  0.071041
  0.078770
  0.054893
  0.065184
  0.074442
  0.082542
  0.042610
  0.054295
  0.065354
  0.075385
  0.084200
  0.065848
  0.072995
  0.066330
  0.073617
  0.080158
  0.064888
  0.072972
  0.080050
  0.086239
  0.059982
  0.069402
  0.077714
  0.084916
  0.091067
  0.061377
  0.071433
  0.080321
  0.087984
  0.015730
  0.025999
  0.041174
  0.028098
  0.035285
  0.048120
  0.036284
  0.056222
  0.047029
  0.036338
  0.043382
  0.053643
  0.043259
  0.059287
  0.051550
  0.042165
  0.061274
  0.055654
  0.048614
  0.040166
  0.050117
  0.057784
  0.048874
  0.061247
  0.054789
  0.046756
  0.061808
  0.057025
  0.051066
  0.043778
  0.060946
  0.056863
  0.052224
  0.046683
  0.005081
  0.000000
  0.017215
  0.007607
  0.004725
  0.019694
  -0.000000
  0.016430
  0.034765
  0.007483
  0.006876
  0.019509
  0.004364
  0.018557
  0.034190
  0.000000
  0.015624
  0.033410
  0.049231
  0.004837
  0.006384
  0.016847
  0.006138
  0.018036
  0.031252
  0.003998
  0.017401
  0.032542
  0.045838
  0.000000
  0.014802
  0.032028
  0.047558
  0.059091
  0.003403
  0.012074
  0.005283
  0.015079
  0.026332
  0.005400
  0.016554
  0.029345
  0.040686
  0.003634
  0.016238
  0.030871
  0.043941
  0.053809
  0.013980
  0.030624
  0.045850
  0.057317
  0.000000
  0.003998
  0.000000
  0.014802
  0.006138
  0.004364
  0.017401
  0.000000
  0.015624
  0.032028
  0.006384
  0.006876
  0.018036
  0.004725
  0.018557
  0.032542
  -0.000000
  0.016430
  0.033410
  0.047558
  0.004837
  0.007483
  0.016847
  0.007607
  0.019509
  0.031252
  0.005081
  0.019694
  0.034190
  0.045838
  0.017215
  0.034765
  0.049231
  0.059091
  0.051149
  0.062827
  0.069679
  0.039308
  0.052332
  0.059532
  0.062847
  0.070166
  0.076720
  0.026681
  0.040884
  0.048388
  0.052794
  0.060429
  0.067346
  0.063032
  0.069880
  0.076936
  0.083182
  0.013490
  0.028618
  0.036336
  0.041825
  0.049692
  0.056946
  0.053329
  0.060560
  0.067958
  0.074575
  0.063973
  0.069816
  0.076366
  0.083147
  0.089093
  0.015720
  0.030037
  0.038025
  0.042745
  0.050274
  0.057970
  0.054519
  0.060810
  0.067776
  0.074914
  0.070549
  0.076063
  0.082321
  0.088820
  0.066335
  0.066501
  0.073868
  0.064899
  0.066531
  0.073040
  0.066148
  0.073842
  0.080173
  0.061982
  0.065739
  0.070963
  0.066473
  0.073522
  0.078847
  0.065728
  0.073641
  0.080360
  0.085664
  0.057216
  0.063695
  0.067182
  0.066193
  0.072191
  0.076069
  0.066219
  0.073692
  0.079632
  0.083799
  0.065296
  0.073338
  0.080328
  0.086080
  0.090400
  0.004764
  0.003345
  0.012294
  0.007350
  0.006275
  0.017046
  0.005184
  0.015287
  0.026920
  0.007461
  0.006747
  0.019727
  0.006025
  0.018258
  0.031879
  0.005291
  0.016778
  0.029969
  0.041577
  0.004979
  0.004631
  0.019992
  0.004279
  0.018846
  0.034908
  0.003922
  0.017688
  0.033255
  0.046802
  0.003557
  0.016519
  0.031574
  0.044908
  0.054869
  0.000000
  0.017647
  0.000000
  0.016853
  0.035644
  0.000000
  0.016030
  0.034275
  0.050343
  0.000000
  0.015199
  0.032881
  0.048666
  0.060219
  0.014362
  0.031459
  0.046952
  0.058455
  0.000000
  0.000000
  0.003922
  0.015199
  0.000000
  0.004279
  0.016030
  0.006025
  0.017688
  0.032881
  0.000000
  0.004631
  0.016853
  0.006747
  0.018846
  0.034275
  0.006275
  0.018258
  0.033255
  0.048666
  0.004979
  0.017647
  0.007461
  0.019992
  0.035644
  0.007350
  0.019727
  0.034908
  0.050343
  0.004764
  0.017046
  0.031879
  0.046802
  0.060219
  0.014847
  0.000000
  0.022586
  0.028952
  0.015047
  0.036409
  0.000000
  0.022934
  0.044288
  0.042202
  0.029215
  0.048978
  0.015280
  0.036953
  0.056357
  0.000000
  0.023237
  0.044886
  0.063887
  0.054429
  0.042388
  0.060347
  0.029590
  0.049561
  0.066869
  0.015516
  0.037517
  0.057196
  0.073927
  0.000000
  0.023453
  0.045336
  0.064556
  0.080677
  0.003091
  0.000000
  0.012349
  0.004789
  0.003388
  0.015038
  0.000000
  0.012863
  0.027081
  0.004891
  0.005459
  0.016322
  0.003678
  0.015905
  0.029798
  0.000000
  0.013294
  0.027686
  0.041845
  0.003291
  0.005984
  0.015966
  0.006124
  0.017623
  0.031157
  0.003934
  0.016672
  0.030783
  0.044849
  0.000000
  0.013678
  0.028186
  0.042277
  0.055207
  0.004833
  0.013843
  0.007083
  0.017763
  0.030901
  0.006727
  0.018818
  0.032621
  0.046637
  0.004176
  0.017362
  0.031618
  0.045623
  0.058487
  0.013996
  0.028576
  0.042609
  0.055411
  0.063668
  0.064170
  0.052849
  0.071199
  0.064082
  0.053618
  0.071511
  0.041118
  0.061133
  0.078153
  0.064156
  0.053912
  0.071157
  0.042194
  0.061671
  0.078292
  0.028619
  0.050089
  0.068844
  0.084546
  0.055641
  0.059306
  0.060496
  0.053242
  0.061358
  0.061805
  0.055920
  0.061938
  0.056659
  0.050025
  0.062163
  0.062085
  0.057205
  0.061809
  0.057324
  0.051846
  0.061411
  0.057184
  0.052188
  0.046105
  0.109252
  0.112499
  0.111453
  0.106482
  0.110416
  0.109469
  0.113166
  0.112842
  0.110871
  0.103179
  0.107800
  0.106888
  0.111135
  0.111062
  0.109079
  0.113717
  0.113714
  0.112728
  0.109675
  0.099391
  0.104668
  0.103752
  0.108583
  0.108696
  0.106657
  0.111664
  0.112034
  0.111202
  0.108037
  0.114331
  0.114339
  0.113894
  0.112092
  0.107810
  0.101054
  0.100085
  0.105539
  0.105793
  0.103640
  0.109100
  0.109797
  0.109071
  0.105740
  0.112198
  0.112673
  0.112531
  0.110799
  0.106296
  0.114931
  0.114653
  0.113639
  0.110889
  0.122280
  0.124106
  0.124153
  0.121264
  0.123163
  0.124045
  0.123785
  0.125046
  0.124501
  0.119892
  0.121882
  0.123477
  0.122618
  0.124547
  0.124866
  0.122071
  0.124295
  0.125008
  0.123922
  0.118269
  0.120374
  0.122480
  0.121252
  0.123635
  0.124776
  0.120864
  0.123487
  0.124994
  0.124730
  0.119230
  0.122046
  0.123888
  0.124017
  0.122465
  0.118762
  0.121142
  0.119806
  0.122403
  0.124228
  0.119614
  0.122384
  0.124521
  0.125119
  0.118194
  0.121090
  0.123500
  0.124482
  0.123664
  0.118566
  0.121204
  0.122547
  0.122105
  0.000000
  -0.000000
  0.014998
  0.000000
  0.000000
  0.014917
  0.000000
  0.014851
  0.029525
  0.000000
  0.000000
  0.014729
  -0.000000
  0.014602
  0.029390
  0.000000
  0.014439
  0.029269
  0.043163
  0.000000
  0.000000
  0.014392
  -0.000000
  0.014184
  0.029063
  0.000000
  0.013938
  0.028833
  0.042979
  0.000000
  0.013634
  0.028535
  0.042821
  0.055630
  0.000000
  0.013865
  0.000000
  0.013560
  0.028461
  0.000000
  0.013212
  0.028090
  0.042546
  0.000000
  0.012807
  0.027623
  0.042235
  0.055393
  0.108290
  0.111592
  0.107359
  0.105849
  0.109876
  0.105059
  0.112925
  0.108741
  0.104931
  0.102721
  0.107604
  0.102434
  0.111397
  0.106674
  0.102159
  0.114185
  0.110071
  0.106309
  0.102798
  0.098733
  0.104611
  0.099326
  0.109288
  0.104248
  0.099104
  0.112856
  0.108227
  0.103750
  0.099689
  0.115385
  0.111350
  0.107622
  0.104191
  0.100456
  0.100747
  0.095562
  0.106425
  0.101330
  0.095727
  0.110897
  0.106005
  0.100932
  0.096163
  0.114241
  0.109720
  0.105299
  0.101271
  0.097429
  0.112561
  0.108885
  0.105529
  0.101947
  0.098294
  0.099611
  0.104693
  0.097605
  0.099071
  0.104319
  0.100428
  0.105049
  0.109754
  0.096768
  0.098513
  0.103835
  0.099825
  0.104746
  0.109582
  0.101428
  0.105470
  0.109749
  0.114047
  0.095737
  0.097895
  0.103190
  0.099262
  0.104416
  0.109281
  0.100727
  0.105113
  0.109669
  0.114071
  0.102527
  0.106069
  0.109779
  0.113695
  0.117553
  0.097164
  0.102341
  0.098715
  0.104011
  0.108804
  0.100074
  0.104793
  0.109551
  0.113953
  0.101795
  0.105609
  0.109663
  0.113842
  0.117774
  0.106803
  0.109991
  0.113338
  0.116839
  0.082547
  0.061205
  0.082282
  0.089224
  0.072326
  0.090285
  0.047458
  0.071408
  0.089997
  0.093414
  0.081003
  0.095821
  0.060355
  0.081378
  0.096842
  0.032412
  0.058781
  0.080518
  0.096368
  0.095307
  0.087127
  0.099016
  0.070992
  0.088864
  0.101331
  0.046815
  0.070638
  0.089301
  0.102153
  0.016446
  0.044612
  0.069182
  0.088323
  0.101440
  0.090772
  0.079123
  0.093869
  0.059259
  0.080115
  0.095627
  0.031993
  0.058162
  0.079911
  0.095943
  0.029213
  0.056122
  0.078407
  0.094805
  0.122310
  0.120871
  0.122383
  0.123122
  0.118902
  0.121484
  0.121362
  0.122001
  0.123635
  0.123066
  0.116855
  0.119810
  0.119292
  0.121737
  0.122306
  0.121095
  0.121172
  0.123731
  0.123975
  0.122179
  0.117764
  0.117358
  0.120529
  0.120382
  0.119049
  0.121558
  0.122972
  0.122295
  0.120126
  0.119947
  0.123362
  0.124524
  0.123413
  0.120529
  0.066335
  0.073868
  0.062163
  0.064899
  0.073040
  0.061358
  0.080173
  0.069527
  0.057205
  0.061982
  0.070963
  0.059306
  0.078847
  0.068161
  0.055920
  0.085664
  0.075988
  0.064750
  0.051846
  0.057216
  0.067182
  0.055641
  0.076069
  0.065353
  0.053242
  0.083799
  0.074022
  0.062779
  0.050025
  0.090400
  0.081586
  0.071328
  0.059492
  0.046105
  0.061377
  0.050117
  0.071433
  0.060724
  0.048874
  0.080321
  0.070417
  0.059191
  0.046756
  0.087984
  0.078985
  0.068623
  0.056873
  0.043778
  0.086377
  0.076974
  0.066144
  0.053777
  0.087007
  0.097279
  0.093512
  0.094076
  0.104405
  0.101287
  0.102562
  0.097611
  0.099489
  0.099887
  0.108902
  0.106316
  0.108140
  0.103163
  0.105694
  0.106658
  0.099472
  0.102630
  0.104312
  0.104438
  0.109252
  0.111453
  0.106482
  0.109469
  0.110871
  0.103179
  0.106888
  0.109079
  0.109675
  0.099391
  0.103752
  0.106657
  0.108037
  0.107810
  0.050636
  0.038948
  0.038258
  0.051292
  0.026465
  0.026009
  0.040073
  0.025445
  0.039226
  0.051777
  0.013396
  0.013174
  0.028055
  0.012890
  0.027447
  0.040989
  0.012623
  0.026962
  0.040417
  0.052799
  0.000000
  0.000000
  0.015417
  0.000000
  0.015079
  0.029417
  0.000000
  0.014799
  0.028982
  0.042289
  0.014639
  0.028793
  0.042148
  0.054403
  0.000000
  0.009209
  0.015021
  0.000000
  0.009344
  0.015157
  0.018345
  0.023992
  0.029555
  0.000000
  0.009557
  0.015447
  0.018647
  0.024256
  0.029727
  0.027321
  0.032728
  0.038034
  0.043225
  0.000000
  0.009786
  0.015824
  0.019085
  0.024753
  0.030198
  0.027814
  0.033150
  0.038327
  0.043379
  0.036054
  0.041157
  0.046149
  0.051019
  0.055711
  0.009954
  0.016165
  0.019529
  0.025356
  0.030895
  0.028478
  0.033864
  0.038995
  0.043916
  0.036754
  0.041762
  0.046592
  0.051286
  0.055865
  0.049225
  0.053856
  0.058366
  0.062708
  0.012948
  0.013146
  0.025955
  0.035327
  0.013320
  0.026305
  0.035805
  0.038702
  0.047626
  0.056032
  0.013439
  0.026560
  0.036160
  0.039097
  0.048117
  0.056616
  0.050844
  0.059161
  0.066913
  0.074084
  0.108902
  0.108690
  0.104405
  0.105190
  0.106316
  0.105063
  0.105851
  0.097279
  0.099384
  0.101287
  0.100455
  0.101920
  0.103163
  0.100544
  0.101621
  0.102486
  0.087007
  0.090666
  0.093512
  0.093222
  0.095553
  0.097611
  0.094665
  0.096543
  0.098124
  0.099472
  0.095076
  0.096496
  0.097675
  0.098629
  0.078675
  0.082551
  0.082859
  0.086206
  0.089224
  0.085911
  0.088736
  0.091223
  0.093414
  0.087856
  0.090136
  0.092144
  0.093850
  0.095305
  0.090461
  0.091990
  0.093272
  0.094300
  0.120562
  0.118204
  0.122008
  0.119485
  0.117624
  0.121645
  0.113914
  0.118762
  0.122193
  0.118216
  0.116700
  0.120893
  0.113536
  0.118610
  0.122281
  0.108538
  0.114362
  0.118840
  0.121905
  0.116880
  0.115529
  0.119830
  0.112790
  0.118051
  0.121940
  0.108362
  0.114414
  0.119130
  0.122434
  0.102071
  0.108880
  0.114354
  0.118482
  0.121203
  0.114231
  0.111752
  0.117144
  0.107804
  0.114058
  0.119000
  0.102086
  0.109122
  0.114825
  0.119177
  0.106801
  0.110071
  0.106073
  0.104949
  0.108769
  0.103910
  0.111587
  0.107847
  0.104003
  0.102428
  0.107212
  0.101673
  0.110576
  0.105965
  0.101357
  0.112936
  0.109461
  0.105858
  0.101867
  0.098790
  0.104997
  0.099111
  0.109314
  0.104020
  0.098550
  0.112221
  0.107863
  0.103501
  0.099087
  0.114113
  0.110913
  0.107558
  0.103778
  0.099120
  0.101679
  0.095805
  0.107401
  0.101763
  0.095634
  0.111254
  0.106207
  0.100983
  0.095764
  0.113698
  0.109601
  0.105488
  0.101307
  0.096831
  0.108757
  0.109171
  0.112315
  0.106727
  0.107195
  0.110862
  0.107817
  0.110940
  0.114239
  0.104422
  0.104938
  0.109124
  0.105644
  0.109253
  0.113081
  0.106432
  0.109571
  0.112811
  0.116242
  0.101821
  0.102415
  0.107079
  0.103173
  0.107293
  0.111597
  0.104097
  0.107656
  0.111429
  0.115338
  0.104985
  0.108194
  0.111396
  0.114795
  0.118269
  0.050027
  0.062182
  0.068509
  0.038398
  0.051855
  0.058480
  0.062756
  0.069676
  0.075655
  0.026040
  0.040635
  0.047503
  0.052906
  0.060066
  0.066366
  0.063377
  0.069929
  0.076611
  0.082235
  0.013159
  0.028641
  0.035686
  0.042183
  0.049507
  0.056109
  0.053926
  0.060774
  0.067730
  0.073675
  0.064683
  0.070217
  0.076572
  0.083001
  0.088263
  0.016053
  0.023184
  0.030685
  0.038075
  0.044927
  0.043626
  0.050698
  0.057887
  0.064159
  0.055524
  0.061437
  0.068117
  0.074836
  0.080414
  0.071223
  0.076543
  0.082701
  0.088869
  0.000000
  0.000000
  0.000000
  0.016630
  0.000000
  0.000000
  0.017417
  0.000000
  0.019130
  0.035130
  0.000000
  0.000000
  0.018189
  -0.000000
  0.019861
  0.036448
  0.000000
  0.021447
  0.039336
  0.051304
  0.000000
  0.000000
  0.018931
  0.000000
  0.020564
  0.037738
  0.000000
  0.022113
  0.040560
  0.052893
  0.023577
  0.043230
  0.056367
  0.062980
  -0.000000
  0.000000
  0.000000
  0.017417
  0.000000
  0.000000
  0.019861
  0.000000
  0.018189
  0.036448
  -0.000000
  0.000000
  0.022113
  0.000000
  0.020564
  0.040560
  0.000000
  0.018931
  0.037738
  0.052893
  0.000000
  0.015890
  0.038233
  0.000000
  0.023083
  0.030306
  0.050987
  0.015572
  0.037600
  0.058130
  0.000000
  0.022790
  0.044756
  0.043441
  0.061777
  0.029855
  0.050035
  0.068526
  0.015291
  0.036870
  0.057221
  0.075193
  0.000000
  0.022369
  0.044214
  0.063953
  0.055729
  0.071545
  0.043247
  0.061081
  0.076959
  0.029610
  0.049289
  0.067290
  0.083263
  0.015097
  0.036204
  0.056149
  0.074087
  0.089349
  0.021929
  0.043433
  0.063233
  0.080206
  0.012772
  0.000000
  0.014522
  0.025850
  0.013033
  0.027137
  0.000000
  0.014738
  0.028549
  0.038854
  0.026314
  0.039821
  0.013274
  0.027669
  0.040630
  0.000000
  0.015026
  0.028913
  0.041763
  0.051140
  0.039255
  0.052201
  0.026614
  0.040564
  0.052613
  0.013439
  0.028207
  0.041383
  0.053015
  0.000000
  0.015325
  0.029442
  0.042204
  0.053924
  0.000000
  0.000000
  0.000000
  0.017054
  0.000000
  0.000000
  0.017856
  0.000000
  0.019600
  0.036014
  0.000000
  0.000000
  0.018639
  0.000000
  0.020339
  0.037344
  0.000000
  0.021953
  0.040261
  0.052420
  0.000000
  0.000000
  0.019394
  0.000000
  0.021057
  0.038649
  0.000000
  0.022633
  0.041500
  0.054012
  0.024122
  0.044196
  0.057491
  0.064087
  0.000000
  0.000000
  0.000000
  0.022633
  0.000000
  0.000000
  0.021057
  0.000000
  0.020339
  0.041500
  0.000000
  0.000000
  0.019394
  0.000000
  0.018639
  0.038649
  0.000000
  0.017856
  0.037344
  0.054012
  0.119160
  0.114931
  0.115664
  0.119357
  0.109605
  0.110408
  0.115031
  0.110968
  0.115434
  0.119098
  0.103219
  0.104113
  0.109624
  0.104788
  0.110137
  0.114711
  0.105286
  0.110455
  0.114857
  0.118456
  -0.000000
  0.000000
  0.000000
  0.013967
  0.000000
  0.000000
  0.014235
  0.000000
  0.014617
  0.028867
  0.000000
  0.000000
  0.014462
  0.000000
  0.014755
  0.029105
  0.000000
  0.014923
  0.029399
  0.042995
  0.123265
  0.122764
  0.121914
  0.123773
  0.121578
  0.120873
  0.122591
  0.119981
  0.122074
  0.123381
  0.120019
  0.119502
  0.120903
  0.118799
  0.120555
  0.121624
  0.117916
  0.120017
  0.121458
  0.122156
  0.118103
  0.119035
  0.117620
  0.118890
  0.119554
  0.116959
  0.118562
  0.119574
  0.119937
  0.116122
  0.118048
  0.119405
  0.120127
  0.120161
  0.034269
  0.034639
  0.047089
  0.026017
  0.026310
  0.039413
  0.026851
  0.039825
  0.051816
  0.017501
  0.017706
  0.031367
  0.018080
  0.031709
  0.044402
  0.018521
  0.032350
  0.044852
  0.056362
  0.008800
  0.008908
  0.023013
  0.009100
  0.023274
  0.036589
  0.009322
  0.023756
  0.036975
  0.049225
  0.009502
  0.024335
  0.037709
  0.049712
  0.060720
  0.000000
  0.014420
  0.000000
  0.014591
  0.028425
  0.000000
  0.014901
  0.028738
  0.041663