# vtk DataFile Version 2.0
HigaError.vtk
ASCII

DATASET UNSTRUCTURED_GRID
POINTS 7161 double
  0.000000  0.000000  0.000000
  1.000000  0.000000  0.000000
  1.000000  1.000000  0.000000
  0.000000  1.000000  0.000000
  0.000000  0.000000  5.000000
  1.000000  0.000000  5.000000
  1.000000  1.000000  5.000000
  0.000000  1.000000  5.000000
  0.500000  0.000000  0.000000
  1.000000  0.500000  0.000000
  0.500000  1.000000  0.000000
  0.000000  0.500000  0.000000
  0.000000  0.000000  0.500000
  0.000000  0.000000  1.000000
  0.000000  0.000000  1.500000
  0.000000  0.000000  2.000000
  0.000000  0.000000  2.500000
  0.000000  0.000000  3.000000
  0.000000  0.000000  3.500000
  0.000000  0.000000  4.000000
  0.000000  0.000000  4.500000
  1.000000  0.000000  0.500000
  1.000000  0.000000  1.000000
  1.000000  0.000000  1.500000
  1.000000  0.000000  2.000000
  1.000000  0.000000  2.500000
  1.000000  0.000000  3.000000
  1.000000  0.000000  3.500000
  1.000000  0.000000  4.000000
  1.000000  0.000000  4.500000
  0.500000  0.000000  5.000000
  1.000000  1.000000  0.500000
  1.000000  1.000000  1.000000
  1.000000  1.000000  1.500000
  1.000000  1.000000  2.000000
  1.000000  1.000000  2.500000
  1.000000  1.000000  3.000000
  1.000000  1.000000  3.500000
  1.000000  1.000000  4.000000
  1.000000  1.000000  4.500000
  1.000000  0.500000  5.000000
  0.000000  1.000000  0.500000
  0.000000  1.000000  1.000000
  0.000000  1.000000  1.500000
  0.000000  1.000000  2.000000
  0.000000  1.000000  2.500000
  0.000000  1.000000  3.000000
  0.000000  1.000000  3.500000
  0.000000  1.000000  4.000000
  0.000000  1.000000  4.500000
  0.500000  1.000000  5.000000
  0.000000  0.500000  5.000000
  0.500000  0.500000  0.000000
  0.250000  0.250000  0.000000
  0.750000  0.250000  0.000000
  0.750000  0.750000  0.000000
  0.250000  0.750000  0.000000
  0.496811  0.000000  4.285080
  0.489583  0.000000  1.243060
  0.500000  0.000000  2.250000
  0.500000  0.000000  3.250000
  0.489707  0.000000  0.698537
  0.499469  0.000000  3.755850
  0.500000  0.000000  2.750000
  0.498264  0.000000  1.748840
  0.632969  0.000000  4.644720
  0.648597  0.000000  0.339602
  0.310456  0.000000  0.300235
  0.325956  0.000000  4.685960
  1.000000  0.496811  4.285080
  1.000000  0.489583  1.243060
  1.000000  0.500000  2.250000
  1.000000  0.500000  3.250000
  1.000000  0.489707  0.698537
  1.000000  0.499469  3.755850
  1.000000  0.500000  2.750000
  1.000000  0.498264  1.748840
  1.000000  0.632969  4.644720
  1.000000  0.648597  0.339602
  1.000000  0.310456  0.300235
  1.000000  0.325956  4.685960
  0.515944  1.000000  4.285080
  0.510417  1.000000  1.243060
  0.500000  1.000000  2.250000
  0.500000  1.000000  3.250000
  0.510293  1.000000  0.698537
  0.502657  1.000000  3.755850
  0.500000  1.000000  2.750000
  0.501736  1.000000  1.748840
  0.367695  1.000000  4.644720
  0.351403  1.000000  0.339602
  0.689544  1.000000  0.300235
  0.676728  1.000000  4.685960
  0.000000  0.515944  4.285080
  0.000000  0.489583  1.756940
  0.000000  0.503189  0.714923
  0.000000  0.498264  3.253470
  0.000000  0.486111  2.254630
  0.000000  0.502368  3.756420
  0.000000  0.498795  1.245310
  0.000000  0.497396  2.751350
  0.000000  0.367031  0.355278
  0.000000  0.367695  4.644720
  0.000000  0.674044  0.314040
  0.000000  0.676728  4.685960
  0.500000  0.500000  5.000000
  0.250000  0.250000  5.000000
  0.250000  0.750000  5.000000
  0.750000  0.250000  5.000000
  0.750000  0.750000  5.000000
  0.530403  0.464122  1.603100
  0.439223  0.540600  0.484020
  0.500000  0.500000  3.502920
  0.900000  0.400000  2.350000
  0.800000  0.497222  2.250930
  0.900000  0.400000  2.250000
  0.800000  0.300000  2.450000
  0.700000  0.397222  2.350930
  0.800000  0.300000  2.350000
  0.600000  0.494444  2.251850
  0.700000  0.397222  2.250930
  0.800000  0.300000  2.250000
  0.700000  0.200000  2.550000
  0.600000  0.297222  2.450930
  0.700000  0.200000  2.450000
  0.500000  0.394444  2.351850
  0.600000  0.297222  2.350930
  0.700000  0.200000  2.350000
  0.400000  0.491667  2.252780
  0.500000  0.394444  2.251850
  0.600000  0.297222  2.250930
  0.700000  0.200000  2.250000
  0.600000  0.100000  2.650000
  0.500000  0.197222  2.550930
  0.600000  0.100000  2.550000
  0.400000  0.294444  2.451850
  0.500000  0.197222  2.450930
  0.600000  0.100000  2.450000
  0.300000  0.391667  2.352780
  0.400000  0.294444  2.351850
  0.500000  0.197222  2.350930
  0.600000  0.100000  2.350000
  0.200000  0.488889  2.253700
  0.300000  0.391667  2.252780
  0.400000  0.294444  2.251850
  0.500000  0.197222  2.250930
  0.600000  0.100000  2.250000
  0.400000  0.097222  2.650930
  0.500000  -0.000000  2.650000
  0.300000  0.194444  2.551850
  0.400000  0.097222  2.550930
  0.500000  -0.000000  2.550000
  0.200000  0.291667  2.452780
  0.300000  0.194444  2.451850
  0.400000  0.097222  2.450930
  0.500000  -0.000000  2.450000
  0.100000  0.388889  2.353700
  0.200000  0.291667  2.352780
  0.300000  0.194444  2.351850
  0.400000  0.097222  2.350930
  0.500000  0.000000  2.350000
  0.100000  0.388889  2.253700
  0.200000  0.291667  2.252780
  0.300000  0.194444  2.251850
  0.400000  0.097222  2.250930
  0.906081  0.492824  2.120620
  0.806081  0.392824  2.120620
  0.706081  0.490047  2.121550
  0.812161  0.485649  1.991240
  0.706081  0.292824  2.120620
  0.606081  0.390047  2.121550
  0.712161  0.385649  1.991240
  0.506081  0.487269  2.122470
  0.612161  0.482871  1.992160
  0.718242  0.478473  1.861860
  0.606081  0.192824  2.120620
  0.506081  0.290047  2.121550
  0.612161  0.285649  1.991240
  0.406081  0.387269  2.122470
  0.512161  0.382871  1.992160
  0.618242  0.378473  1.861860
  0.306081  0.484491  2.123400
  0.412161  0.480093  1.993090
  0.518242  0.475696  1.862780
  0.624322  0.471298  1.732480
  0.506081  0.092825  2.120620
  0.406081  0.190047  2.121550
  0.512161  0.185649  1.991240
  0.306081  0.287269  2.122470
  0.412161  0.282871  1.992160
  0.518242  0.278473  1.861860
  0.206081  0.384491  2.123400
  0.312161  0.380093  1.993090
  0.418242  0.375696  1.862780
  0.524322  0.371298  1.732480
  0.106081  0.481713  2.124320
  0.212161  0.477316  1.994020
  0.318242  0.472918  1.863710
  0.424322  0.468520  1.733400
  0.100000  0.588889  2.253700
  0.200000  0.691667  2.252780
  0.300000  0.591667  2.252780
  0.206081  0.584491  2.123400
  0.300000  0.794444  2.251850
  0.400000  0.694444  2.251850
  0.306081  0.687269  2.122470
  0.500000  0.594444  2.251850
  0.406081  0.587269  2.122470
  0.312161  0.580093  1.993090
  0.400000  0.897222  2.250930
  0.500000  0.797222  2.250930
  0.406081  0.790047  2.121550
  0.600000  0.697222  2.250930
  0.506081  0.690047  2.121550
  0.412161  0.682871  1.992160
  0.700000  0.597222  2.250930
  0.606081  0.590047  2.121550
  0.512161  0.582871  1.992160
  0.418242  0.575696  1.862780
  0.600000  0.900000  2.250000
  0.506081  0.892824  2.120620
  0.700000  0.800000  2.250000
  0.606081  0.792824  2.120620
  0.512161  0.785649  1.991240
  0.800000  0.700000  2.250000
  0.706081  0.692824  2.120620
  0.612161  0.685649  1.991240
  0.518242  0.678473  1.861860
  0.900000  0.600000  2.250000
  0.806081  0.592824  2.120620
  0.712161  0.585649  1.991240
  0.618242  0.578473  1.861860
  0.524322  0.571298  1.732480
  0.000000  0.486806  2.155090
  0.000000  0.487500  2.055560
  0.100000  0.589583  2.154170
  0.106081  0.482408  2.024790
  0.000000  0.488194  1.956020
  0.100000  0.590278  2.054630
  0.106081  0.483102  1.925250
  0.200000  0.692361  2.153240
  0.206081  0.585186  2.023860
  0.212161  0.478010  1.894480
  0.000000  0.488889  1.856480
  0.100000  0.590972  1.955090
  0.106081  0.483797  1.825710
  0.200000  0.693056  2.053700
  0.206081  0.585880  1.924320
  0.212161  0.478704  1.794940
  0.300000  0.795139  2.152310
  0.306081  0.687963  2.022930
  0.312161  0.580788  1.893550
  0.318242  0.473612  1.764170
  0.100000  0.591667  1.855560
  0.106081  0.484491  1.726170
  0.200000  0.693750  1.954170
  0.206081  0.586574  1.824790
  0.212161  0.479399  1.695410
  0.300000  0.795833  2.052780
  0.306081  0.688658  1.923400
  0.312161  0.581482  1.794020
  0.318242  0.474307  1.664640
  0.400000  0.897917  2.151390
  0.406081  0.790741  2.022010
  0.412161  0.683566  1.892630
  0.418242  0.576390  1.763250
  0.424322  0.469214  1.633870
  0.500347  1.000000  2.149770
  0.400347  0.897917  2.051160
  0.500694  1.000000  2.049540
  0.506428  0.892824  2.020390
  0.300347  0.795833  1.952550
  0.400694  0.897917  1.950930
  0.406428  0.790741  1.921780
  0.501042  1.000000  1.949310
  0.506775  0.892824  1.920160
  0.512508  0.785649  1.891010
  0.200347  0.693750  1.853940
  0.300694  0.795833  1.852310
  0.306428  0.688658  1.823170
  0.401042  0.897917  1.850690
  0.406775  0.790741  1.821550
  0.412508  0.683566  1.792400
  0.501389  1.000000  1.849070
  0.507122  0.892824  1.819920
  0.512856  0.785649  1.790780
  0.518589  0.678473  1.761630
  0.100347  0.591667  1.755320
  0.200694  0.693750  1.753700
  0.206428  0.586574  1.724550
  0.301042  0.795833  1.752080
  0.306775  0.688658  1.722930
  0.312508  0.581482  1.693780
  0.401389  0.897917  1.750460
  0.407122  0.790741  1.721310
  0.412856  0.683566  1.692160
  0.418589  0.576390  1.663020
  0.507469  0.892824  1.719690
  0.513203  0.785649  1.690540
  0.518936  0.678473  1.661390
  0.524669  0.571298  1.632250
  0.100000  0.389583  2.154170
  0.200000  0.292361  2.153240
  0.100000  0.390278  2.054630
  0.206081  0.385186  2.023860
  0.300000  0.195139  2.152310
  0.200000  0.293056  2.053700
  0.306081  0.287963  2.022930
  0.100000  0.390972  1.955090
  0.206081  0.385880  1.924320
  0.312161  0.380788  1.893550
  0.400000  0.097917  2.151390
  0.300000  0.195833  2.052780
  0.406081  0.190741  2.022010
  0.200000  0.293750  1.954170
  0.306081  0.288658  1.923400
  0.412161  0.283566  1.892630
  0.100000  0.391667  1.855560
  0.206081  0.386574  1.824790
[...]
POINT_DATA 7161
SCALARS pressure double
LOOKUP_TABLE default
  0.000000
  0.000000
  0.087157
  0.000000
  0.000000
  0.000000
  0.000000
  0.000000
  0.000000
  0.049390
  0.079394
  0.000000
  0.000000
  0.000000
  0.000000
  0.000000
  0.000000
  0.000000
  0.000000
  0.000000
  0.000000
  0.000000
  0.000000
  -0.000000
  0.000000
  0.000000
  0.000000
  0.000000
  0.000000
  0.000000
  0.000000
  0.087157
  0.087157
  0.000000
  0.000000
  0.000000
  0.000000
  0.000000
  0.000000
  0.000000
  0.000000
  -0.000000
  0.000000
  0.000000
  0.000000
  0.000000
  0.000000
  0.000000
  0.000000
  0.000000
  0.000000
  0.000000
  0.045132
  0.020006
  0.023806
  0.065184
  0.053126
  -0.000000
  -0.000000
  -0.000000
  -0.000000
  -0.000000
  -0.000000
  -0.000000
  -0.000000
  -0.000000
  0.000000
  -0.000000
  -0.000000
  -0.000000
  -0.000000
  -0.000000
  -0.000000
  0.048474
  -0.000000
  -0.000000
  -0.000000
  -0.000000
  0.061993
  0.031680
  -0.000000
  -0.000000
  -0.000000
  -0.000000
  -0.000000
  0.079351
  -0.000000
  -0.000000
  -0.000000
  -0.000000
  0.076218
  0.079994
  -0.000000
  -0.000000
  -0.000000
  0.000000
  -0.000000
  -0.000000
  -0.000000
  -0.000000
  -0.000000
  -0.000000
  -0.000000
  -0.000000
  -0.000000
  -0.000000
  -0.000000
  -0.000000
  -0.000000
  -0.000000
  -0.071103
  -0.010889
  -0.071679
  -0.026213
  -0.048789
  -0.027489
  -0.039462
  -0.059078
  -0.040619
  -0.068459
  -0.058995
  -0.040647
  -0.038125
  -0.057026
  -0.039067
  -0.066248
  -0.056771
  -0.039175
  -0.065835
  -0.066143
  -0.056604
  -0.038627
  -0.023968
  -0.044512
  -0.024503
  -0.054701
  -0.044224
  -0.024596
  -0.054425
  -0.054580
  -0.044027
  -0.024396
  -0.043588
  -0.054549
  -0.054585
  -0.043838
  -0.023681
  -0.023951
  -0.000000
  -0.036475
  -0.023993
  -0.000000
  -0.036170
  -0.036642
  -0.023986
  -0.000000
  -0.023249
  -0.036423
  -0.036648
  -0.023893
  -0.000000
  -0.023840
  -0.036636
  -0.036566
  -0.023674
  -0.028309
  -0.046010
  -0.062061
  -0.048181
  -0.049757
  -0.064393
  -0.057075
  -0.070198
  -0.068600
  -0.060958
  -0.040860
  -0.056409
  -0.053792
  -0.062488
  -0.065199
  -0.062743
  -0.058468
  -0.067112
  -0.070315
  -0.068305
  -0.021958
  -0.040428
  -0.039919
  -0.047464
  -0.053150
  -0.053701
  -0.042613
  -0.055178
  -0.062273
  -0.063855
  -0.026955
  -0.046604
  -0.060113
  -0.068220
  -0.024648
  -0.039956
  -0.057208
  -0.045177
  -0.042291
  -0.060509
  -0.053759
  -0.069690
  -0.066542
  -0.059313
  -0.029122
  -0.051747
  -0.049820
  -0.063180
  -0.064505
  -0.062094
  -0.062265
  -0.068768
  -0.070407
  -0.067894
  -0.030536
  -0.031697
  -0.046217
  -0.051324
  -0.052632
  -0.045996
  -0.057247
  -0.063499
  -0.065143
  -0.030031
  -0.049182
  -0.061787
  -0.068826
  -0.071040
  -0.000000
  -0.000000
  -0.025073
  -0.026793
  -0.000000
  -0.025129
  -0.026652
  -0.040437
  -0.045243
  -0.046436
  -0.000000
  -0.024951
  -0.026585
  -0.040457
  -0.045176
  -0.046519
  -0.042651
  -0.053833
  -0.059395
  -0.060229
  -0.024414
  -0.026864
  -0.040052
  -0.045221
  -0.047012
  -0.042515
  -0.053933
  -0.059553
  -0.060815
  -0.029206
  -0.049910
  -0.062270
  -0.068191
  -0.068830
  -0.000000
  -0.029862
  -0.000000
  -0.032266
  -0.043171
  -0.030168
  -0.050300
  -0.000000
  -0.032666
  -0.053528
  -0.040616
  -0.043379
  -0.054184
  -0.030226
  -0.050642
  -0.062715
  -0.000000
  -0.033092
  -0.054482
  -0.066572
  -0.025012
  -0.040599
  -0.045448
  -0.043033
  -0.054306
  -0.059790
  -0.029798
  -0.050926
  -0.063197
  -0.068681
  -0.034156
  -0.056145
  -0.068558
  -0.073196
  -0.024063
  -0.036781
  -0.024080
  -0.042684
  -0.036506
  -0.036774
  -0.047412
  -0.023972
  -0.042640
  -0.055236
  -0.023259
  -0.036345
  -0.040232
  -0.036582
  -0.047420
  -0.053118
  -0.023706
  -0.042676
  -0.055403
  -0.062514
  -0.030307
  -0.030344
  -0.046246
  -0.051378
  -0.030406
  -0.046243
  -0.051674
  -0.046047
  -0.057358
  -0.063833
  -0.030373
  -0.046097
  -0.052279
  -0.045955
  -0.057603
  -0.064605
  -0.029879
  -0.049387
  -0.062088
  -0.069497
  -0.030707
  -0.045600
  -0.045975
  -0.052827
  -0.044337
  -0.045442
  -0.057883
  -0.045772
  -0.057595
  -0.065398
  -0.027782
  -0.029365
  -0.049362
  -0.029745
  -0.049274
  -0.062914
  -0.029856
  -0.049350
  -0.062273
  -0.070362
  -0.000000
  -0.028629
  -0.000000
  -0.028451
  -0.049119
  -0.000000
  -0.028469
  -0.048481
  -0.062305
  -0.000000
  -0.028493
  -0.048256
  -0.061365
  -0.069307
  -0.020924
  -0.016990
  -0.000000
  -0.030651
  -0.032956
  -0.021041
  -0.030025
  -0.017394
  -0.000000
  -0.029619
  -0.037396
  -0.030183
  -0.039544
  -0.032090
  -0.020620
  -0.034281
  -0.028757
  -0.017142
  -0.000000
  -0.019034
  -0.032209
  -0.028199
  -0.039048
  -0.035910
  -0.029116
  -0.037232
  -0.036664
  -0.030690
  -0.019728
  -0.025247
  -0.029228
  -0.026240
  -0.016327
  -0.000000
  -0.019060
  -0.016694
  -0.030430
  -0.030225
  -0.026432
  -0.032046
  -0.035397
  -0.033889
  -0.027377
  -0.022077
  -0.030445
  -0.032732
  -0.028778
  -0.018039
  -0.014209
  -0.021969
  -0.022191
  -0.014704
  -0.014986
  -0.000000
  -0.016990
  -0.027367
  -0.015309
  -0.029036
  -0.000000
  -0.017801
  -0.026012
  -0.032047
  -0.026187
  -0.036066
  -0.015135
  -0.028735
  -0.033954
  -0.000000
  -0.018063
  -0.026599
  -0.026068
  -0.024405
  -0.027755
  -0.034705
  -0.024185
  -0.033537
  -0.036363
  -0.014556
  -0.027734
  -0.032887
  -0.030145
  -0.000000
  -0.017865
  -0.026454
  -0.025862
  -0.017080
  -0.015015
  -0.022049
  -0.028341
  -0.021349
  -0.029892
  -0.032744
  -0.013616
  -0.026028
  -0.030911
  -0.028241
  -0.017189
  -0.025505
  -0.024754
  -0.015802
  -0.027612
  -0.028885
  -0.028421
  -0.040622
  -0.050539
  -0.047336
  -0.044281
  -0.049078
  -0.049232
  -0.038850
  -0.059790
  -0.051927
  -0.062136
  -0.063067
  -0.059854
  -0.044002
  -0.055619
  -0.061616
  -0.062674
  -0.024254
  -0.057061
  -0.044042
  -0.069357
  -0.065896
  -0.058278
  -0.061307
  -0.068088
  -0.069563
  -0.066889
  -0.028325
  -0.047822
  -0.060497
  -0.067522
  -0.069808
  -0.044067
  -0.026441
  -0.066152
  -0.058481
  -0.046566
  -0.068169
  -0.070457
  -0.067236
  -0.060562
  -0.047671
  -0.061880
  -0.068845
  -0.070703
  -0.069085
  -0.026222
  -0.046065
  -0.059371
  -0.067215
  -0.024124
  -0.025241
  -0.025377
  -0.037981
  -0.045653
  -0.043389
  -0.038597
  -0.042492
  -0.044261
  -0.038768
  -0.057656
  -0.050925
  -0.056456
  -0.058236
  -0.056733
  -0.038657
  -0.048619
  -0.055022
  -0.058038
  -0.025238
  -0.058846
  -0.045690
  -0.067196
  -0.065318
  -0.058280
  -0.055885
  -0.063462
  -0.066650
  -0.065034
  -0.025379
  -0.042877
  -0.055621
  -0.063617
  -0.067194
  -0.022810
  -0.036163
  -0.035308
  -0.042506
  -0.036224
  -0.035935
  -0.047222
  -0.035186
  -0.047219
  -0.055543
  -0.023322
  -0.023305
  -0.040231
  -0.023185
  -0.040308
  -0.053297
  -0.022590
  -0.040515
  -0.053769
  -0.062978
  -0.000000
  -0.000000
  -0.022580
  -0.000000
  -0.022921
  -0.040737
  -0.000000
  -0.023194
  -0.041407
  -0.054886
  -0.023574
  -0.042352
  -0.056411
  -0.065927
  -0.027786
  -0.020472
  -0.000000
  -0.043419
  -0.039285
  -0.026972
  -0.031261
  -0.020725
  -0.000000
  -0.046184
  -0.046804
  -0.040764
  -0.041523
  -0.038239
  -0.025809
  -0.030842
  -0.031632
  -0.020281
  -0.000000
  -0.033395
  -0.041820
  -0.039548
  -0.042373
  -0.043420
  -0.037098
  -0.034883
  -0.040809
  -0.036373
  -0.024231
  -0.019781
  -0.032046
  -0.031070
  -0.019180
  -0.000000
  -0.021007
  -0.031433
  -0.033169
  -0.031510
  -0.038774
  -0.038231
  -0.020886
  -0.035452
  -0.039032
  -0.033620
  -0.022795
  -0.032043
  -0.029173
  -0.016826
  -0.032052
  -0.038434
  -0.030391
  -0.042948
  -0.038082
  -0.038607
  -0.034500
  -0.042993
  -0.039999
  -0.035402
  -0.038908
  -0.037248
  -0.034782
  -0.032122
  -0.031605
  -0.038291
  -0.037552
  -0.035491
  -0.035226
  -0.034546
  -0.033185
  -0.031024
  -0.023892
  -0.023525
  -0.022878
  -0.021961
  -0.019414
  -0.021455
  -0.029331
  -0.030522
  -0.030416
  -0.028529
  -0.029010
  -0.028838
  -0.027826
  -0.018010
  -0.018048
  -0.017878
  -0.017441
  -0.016687
  -0.000000
  -0.000000
  -0.000000
  -0.000000
  -0.024437
  -0.041180
  -0.023690
  -0.038766
  -0.050151
  -0.039644
  -0.048776
  -0.022790
  -0.036772
  -0.040252
  -0.048926
  -0.046809
  -0.052040
  -0.037559
  -0.045575
  -0.044572
  -0.021560
  -0.034233
  -0.036267
  -0.027140
  -0.041945
  -0.023933
  -0.027169
  -0.062904
  -0.053401
  -0.057741
  -0.036768
  -0.042693
  -0.047464
  -0.065551
  -0.064455
  -0.069444
  -0.054108
  -0.062509
  -0.067196
  -0.036976
  -0.048073
  -0.055976
  -0.061549
  -0.047325
  -0.057658
  -0.062293
  -0.055988
  -0.064918
  -0.069386
  -0.044062
  -0.057541
  -0.066583
  -0.071160
  -0.024293
  -0.041934
  -0.054965
  -0.064072
  -0.069739
  -0.029651
  -0.047085
  -0.050297
  -0.051453
  -0.059468
  -0.063267
  -0.043296
  -0.056763
  -0.065708
  -0.070064
  -0.024592
  -0.043486
  -0.057403
  -0.067079
  -0.000000
  -0.023737
  -0.000000
  -0.023017
  -0.023109
  -0.040054
  -0.038290
  -0.000000
  -0.022018
  -0.021883
  -0.034590
  -0.038069
  -0.035649
  -0.046010
  -0.048174
  -0.041581
  -0.000000
  -0.020828
  -0.019917
  -0.032105
  -0.035479
  -0.031649
  -0.032936
  -0.042477
  -0.043995
  -0.035121
  -0.040520
  -0.048480
  -0.046305
  -0.030309
  -0.022763
  -0.037555
  -0.035279
  -0.034177
  -0.043716
  -0.042433
  -0.043752
  -0.032679
  -0.033588
  -0.033133
  -0.041497
  -0.043365
  -0.047385
  -0.036504
  -0.038917
  -0.040220
  -0.019457
  -0.020699
  -0.021113
  -0.020807
  -0.032046
  -0.038486
  -0.044913
  -0.036074
  -0.040100
  -0.042784
  -0.023638
  -0.025678
  -0.026996
  -0.027581
  -0.000000
  -0.000000
  -0.000000
  -0.000000
  -0.025407
  -0.027004
  -0.041366
  -0.038303
  -0.027950
  -0.044193
  -0.041207
  -0.049315
  -0.048563
  -0.038727
  -0.028492
  -0.046089
  -0.043311
  -0.053467
  -0.052307
  -0.043074
  -0.049587
  -0.053177
  -0.045913
  -0.027915
  -0.017063
  -0.018058
  -0.029570
  -0.032498
  -0.018413
  -0.030322
  -0.034739
  -0.032954
  -0.039017
  -0.039807
  -0.018307
  -0.029983
  -0.035928
  -0.031944
  -0.040356
  -0.043700
  -0.022023
  -0.035423
  -0.041080
  -0.039213
  -0.024329
  -0.038543
  -0.054851
  -0.044216
  -0.040065
  -0.057463
  -0.051332
  -0.066385
  -0.064623
  -0.058326
  -0.027326
  -0.048521
  -0.045811
  -0.059707
  -0.061367
  -0.058518
  -0.059460
  -0.067050
  -0.068782
  -0.066281
  -0.025624
  -0.047426
  -0.045427
  -0.054948
  -0.060301
  -0.059143
  -0.048743
  -0.061413
  -0.067601
  -0.067474
  -0.047515
  -0.049644
  -0.047025
  -0.051643
  -0.041342
  -0.045097
  -0.048989
  -0.039415
  -0.042473
  -0.044811
  -0.034553
  -0.035181
  -0.037911
  -0.023872
  -0.025340
  -0.026467
  -0.031376
  -0.028770
  -0.028755
  -0.052637
  -0.049631
  -0.050483
  -0.042052
  -0.046433
  0.020317
  -0.065319
  -0.062017
  -0.063677
  -0.053614
  -0.059275
  -0.061536
  -0.040002
  -0.050206
  0.004296
  0.003506
  -0.071176
  -0.067742
  -0.069758
  -0.059075
  -0.065538
  -0.068182
  -0.044926
  -0.056140
  -0.063134
  -0.011546
  -0.024830
  -0.041327
  -0.004811
  -0.006071
  -0.006560
  -0.067860
  -0.069537
  -0.059594
  -0.066217
  -0.068506
  -0.045869
  -0.057351
  -0.064547
  -0.021046
  -0.026109
  -0.042852
  -0.054858
  -0.016334
  -0.017026
  -0.022322
  -0.008902
  -0.010730
  -0.011851
  -0.051404
  -0.057948
  -0.057586
  -0.059957
  -0.054777
  -0.059139
  -0.061376
  -0.054085
  -0.065351
  -0.058488
  -0.061029
  -0.059680
  -0.063402
  -0.058602
  -0.022646
  -0.041990
  -0.035527
  -0.039491
  -0.055086
  -0.047384
  -0.053354
  -0.036022
  -0.046397
  -0.017473
  -0.062870
  -0.054176
  -0.061887
  -0.041320
  -0.053849
  -0.060770
  -0.023730
  -0.041963
  -0.024208
  -0.020488
  -0.066205
  -0.056970
  -0.065529
  -0.043219
  -0.057070
  -0.065218
  -0.024448
  -0.044202
  -0.057440
  -0.025779
  -0.026613
  -0.024836
  -0.026445
  -0.021607
  -0.012989
  -0.020596
  -0.025949
  -0.027270
  -0.021477
  -0.025354
  -0.025355
  -0.028610
  -0.028706
  -0.027933
  -0.014665
  -0.016909
  -0.016341
  -0.018548
  -0.018124
  -0.017263
  -0.019805
  -0.019613
  -0.018847
  -0.017469
  -0.000000
  -0.000000
  -0.000000
  -0.000000
  -0.000000
  -0.000000
  -0.000000
  -0.000000
  -0.000000
  -0.000000
  -0.000000
  -0.000000
  -0.000000
  -0.000000
  -0.028723
  -0.044753
  -0.051068
  -0.048928
  -0.045199
  -0.057519
  -0.056895
  -0.063924
  -0.062354
  -0.000041
  -0.029955
  -0.050386
  -0.051560
  -0.063136
  -0.062872
  -0.009147
  -0.069687
  -0.068697
  -0.067758
  -0.011675
  -0.030709
  -0.033382
  -0.051151
  -0.052023
  -0.006346
  -0.063727
  -0.063561
  -0.064020
  -0.017172
  -0.070036
  -0.069202
  -0.068846
  -0.022038
  -0.017846
  -0.012122
  -0.018979
  -0.024492
  -0.025394
  -0.019333
  -0.023124
  -0.023046
  -0.026141
  -0.026387
  -0.025829
  -0.012858
  -0.014885
  -0.014447
  -0.016274
  -0.016089
  -0.015542
  -0.017277
  -0.017255
  -0.016929
  -0.016268
  -0.000000
  -0.000000
  -0.000000
  -0.000000
  -0.000000
  -0.000000
  -0.000000
  -0.000000
  -0.000000
  -0.000000
  -0.000000
  -0.000000
  -0.000000
  -0.000000
  -0.028519
  -0.040847
  -0.028788
  -0.046544
  -0.037850
  -0.041214
  -0.049876
  -0.028816
  -0.046363
  -0.057660
  -0.022578
  -0.038476
  -0.040688
  -0.041192
  -0.049789
  -0.053952
  -0.028487
  -0.046287
  -0.057274
  -0.063176
  -0.000000
  -0.019258
  -0.000000
  -0.000000
  -0.030450
  -0.020234
  -0.018630
  -0.000000
  -0.000000
  -0.000000
  -0.028704
  -0.030673
  -0.027073
  -0.020445
  -0.019314
  -0.017469
  -0.000000
  -0.000000
  -0.000000
  -0.000000
  -0.000000
  -0.017746
  -0.000000
  -0.000000
  -0.027717
  -0.016785
  -0.017618
  -0.000000
  -0.000000
  -0.000000
  -0.027133
  -0.024744
  -0.027592
  -0.015383
  -0.016311
  -0.016855
  -0.000000
  -0.000000
  -0.000000
  -0.000000
  -0.024661
  -0.042617
  -0.039902
  -0.044748
  -0.055749
  -0.051409
  -0.057043
  -0.042429
  -0.053399
  -0.028993
  -0.064623
  -0.059049
  -0.065069
  -0.047958
  -0.060246
  -0.065406
  -0.029581
  -0.050103
  -0.023796
  -0.026415
  -0.028648
  -0.000000
  -0.031239
  -0.042070
  -0.028947
  -0.048923
  -0.000000
  -0.030863
  -0.052640
  -0.040188
  -0.042113
  -0.052958
  -0.028785
  -0.048419
  -0.061053
  -0.000000
  -0.030623
  -0.051629
  -0.065493
  -0.025074
  -0.039975
  -0.044411
  -0.041722
  -0.052391
  -0.058210
  -0.028252
  -0.048010
  -0.060321
  -0.066956
  -0.000000
  -0.030269
  -0.050961
  -0.064206
  -0.071345
  -0.024771
  -0.025636
  -0.039479
  -0.043802
  -0.045315
  -0.040848
  -0.051900
  -0.057470
  -0.059434
  -0.027135
  -0.047439
  -0.059778
  -0.066165
  -0.068292
  -0.000000
  -0.023714
  -0.000000
  -0.024257
  -0.025059
  -0.036620
  -0.041771
  -0.000000
  -0.024475
  -0.025251
  -0.037261
  -0.042085
  -0.044066
  -0.036755
  -0.048163
  -0.054952
  -0.000000
  -0.024325
  -0.025299
  -0.037313
  -0.042188
  -0.044556
  -0.037222
  -0.048392
  -0.055276
  -0.058370
  -0.023859
  -0.042781
  -0.056030
  -0.064092
  -0.023438
  -0.036632
  -0.042302
  -0.036986
  -0.048551
  -0.055662
  -0.024124
  -0.043026
  -0.056262
  -0.064391
  -0.026099
  -0.046274
  -0.060625
  -0.069287
  -0.024964
  -0.039735
  -0.025242
  -0.043481
  -0.041114
  -0.039972
  -0.051696
  -0.025198
  -0.043575
  -0.057004
  -0.029212
  -0.029402
  -0.043841
  -0.044298
  -0.049926
  -0.044144
  -0.050764
  -0.042783
  -0.043572
  -0.055379
  -0.043708
  -0.055759
  -0.062491
  -0.042941
  -0.056502
  -0.063424
  -0.026793
  -0.027775
  -0.047097
  -0.028076
  -0.047463
  -0.060365
  -0.027950
  -0.047846
  -0.060900
  -0.068137
  -0.026736
  -0.048470
  -0.061940
  -0.069042
  -0.000000
  -0.000000
  -0.026755
  -0.000000
  -0.027387
  -0.046819
  -0.000000
  -0.027856
  -0.047870
  -0.060717
  -0.028161
  -0.048583
  -0.061768
  -0.069000
  -0.025534
  -0.000000
  -0.040452
  -0.025561
  -0.045066
  -0.000000
  -0.026117
  -0.041270
  -0.040203
  -0.052851
  -0.025480
  -0.044940
  -0.058782
  -0.000000
  -0.026357
  -0.046205
  -0.026569
  -0.040507
  -0.047251
  -0.039386
  -0.052285
  -0.059982
  -0.025060
  -0.044873
  -0.058633
  -0.066825
  -0.000000
  -0.026723
  -0.046630
  -0.060690
  -0.024856
  -0.038287
  -0.045984
  -0.037429
  -0.051427
  -0.059292
  -0.023750
  -0.044443
  -0.058594
  -0.066654
  -0.024266
  -0.024452
  -0.037095
  -0.042865
  -0.024388
  -0.037113
  -0.042939
  -0.036931
  -0.048186
  -0.056043
  -0.029542
  -0.029503
  -0.044224
  -0.049531
  -0.029126
  -0.044021
  -0.049224
  -0.043303
  -0.055174
  -0.061838
  -0.024872
  -0.000000
  -0.026036
  -0.039130
  -0.025195
  -0.044158
  -0.000000
  -0.025658
  -0.045882
  -0.039775
  -0.039468
  -0.051520
  -0.025206
  -0.043836
  -0.057623
  -0.000000
  -0.025514
  -0.045077
  -0.059831
  -0.025469
  -0.039871
  -0.045808
  -0.039122
  -0.051261
  -0.058409
  -0.024877
  -0.043669
  -0.057064
  -0.065476
  -0.000000
  -0.025437
  -0.044593
  -0.058800
  -0.068313
  -0.027697
  -0.043768
  -0.042584
  -0.049010
  -0.043826
  -0.043139
  -0.055294
  -0.041623
  -0.055324
  -0.061775
  -0.028356
  -0.028034
  -0.047529
  -0.027352
  -0.047366
  -0.060483
  -0.025712
  -0.047540
  -0.060977
  -0.067958
  -0.000000
  -0.000000
  -0.027019
  -0.000000
  -0.027416
  -0.046939
  -0.000000
  -0.027751
  -0.047699
  -0.060526
  -0.028092
  -0.048422
  -0.061600
  -0.068864
  -0.024693
  -0.039148
  -0.039245
  -0.044479
  -0.040162
  -0.040583
  -0.051979
  -0.040478
  -0.051578
  -0.058084
  -0.026243
  -0.027124
  -0.046576
  -0.027191
  -0.046158
  -0.059299
  -0.026878
  -0.045971
  -0.058603
  -0.066091
  -0.000000
  -0.029311
  -0.000000
  -0.028731
  -0.044565
  -0.029866
  -0.049370
  -0.000000
  -0.028835
  -0.049383
  -0.043548
  -0.045080
  -0.055770
  -0.029907
  -0.049576
  -0.062005
  -0.000000
  -0.029184
  -0.049975
  -0.063124
  -0.026844
  -0.043456
  -0.048375
  -0.044580
  -0.056259
  -0.061650
  -0.029443
  -0.050036
  -0.062634
  -0.068599
  -0.030393
  -0.051541
  -0.064588
  -0.070864
  -0.023586
  -0.038388
  -0.037447
  -0.044400
  -0.040596
  -0.039932
  -0.051711
  -0.038395
  -0.051929
  -0.058673
  -0.027917
  -0.027628
  -0.047014
  -0.026842
  -0.046792
  -0.059876
  -0.025025
  -0.047039
  -0.060377
  -0.067192
  -0.023674
  -0.023959
  -0.036860
  -0.042281
  -0.024220
  -0.037296
  -0.042125
  -0.037383
  -0.048373
  -0.055456
  -0.024568
  -0.037811
  -0.042201
  -0.037873
  -0.048367
  -0.055120
  -0.024788
  -0.042986
  -0.055886
  -0.064026
  -0.038196
  -0.039408
  -0.039894
  -0.051216
  -0.026201
  -0.026710
  -0.045627
  -0.026999
  -0.045602
  -0.058659
  -0.000000
  -0.024456
  -0.025175
  -0.000000
  -0.025539
  -0.025763
  -0.039577
  -0.044166
  -0.044765
  -0.000000
  -0.025721
  -0.026171
  -0.040210
  -0.044586
  -0.045312
  -0.041172
  -0.052617
  -0.058156
  -0.058967
  -0.000000
  -0.025178
  -0.026386
  -0.039635
  -0.044791
  -0.045923
  -0.040708
  -0.052505
  -0.058433
  -0.059590
  -0.027400
  -0.048164
  -0.060714
  -0.066949
  -0.068154
  -0.024300
  -0.037369
  -0.024854
  -0.042594
  -0.037134
  -0.037706
  -0.048495
  -0.025053
  -0.042922
  -0.055653
  -0.023927
  -0.037157
  -0.042602
  -0.037710
  -0.048515
  -0.055705
  -0.025004
  -0.043106
  -0.055839
  -0.064049
  -0.000000
  -0.024548
  -0.000000
  -0.016209
  -0.039780
  -0.024330
  -0.025089
  -0.000000
  -0.015884
  -0.024249
  -0.042134
  -0.039297
  -0.024686
  -0.014724
  -0.024430
  -0.028148
  -0.000000
  -0.015200
  -0.023195
  -0.025043
  -0.028975
  -0.041381
  -0.011563
  -0.019964
  -0.024001
  -0.022952
  -0.013782
  -0.023582
  -0.026990
  -0.024911
  -0.014014
  -0.021371
  -0.022642
  -0.018804
  -0.000000
  -0.007577
  -0.004741
  -0.000000
  -0.008240
  -0.005207
  -0.014855
  -0.012333
  -0.007006
  -0.000000
  -0.023244
  -0.005613
  -0.035798
  -0.012913